14
Properties=species:S:1:pos:R:3:forces:R:3:charge:R:1 energy=-9387.623040800287 pbc="F F F"
O       -1.42251345       1.89751355      -0.48791645      -0.08005475      -0.02023476      -0.16401558      -0.60336614
H       -2.37452979       1.78312465      -0.45011182       0.05844350       0.04160867       0.01026610       0.34949201
H       -1.16891057       2.35354899       0.32738113      -0.02676961      -0.06112645       0.15182531       0.28701764
C        0.12602402       0.99030397       2.41432353       0.11466574       0.09415372       0.52724028       0.14517388
O       -0.49877238       1.97405107       2.10769055      -0.08055802       0.20220648       0.04374375      -0.33733359
H        1.22519911       0.96463890       2.39303003      -0.02314741      -0.02085848      -0.12611759       0.08550726
H       -0.35082721       0.10386542       2.85386262      -0.05323347       0.02581843      -0.06452257       0.08342990
C        1.67706883       0.39547311      -1.23688425       0.02245644       0.13175020      -0.15448827      -0.38107258
C        1.30017498      -0.28485629      -0.16835752       0.11928105      -0.20270924      -0.03125060       0.00838275
O        0.09680096      -0.17400771       0.44550280      -0.44438350       0.03295786      -0.24066822      -0.33386225
H       -0.45360176       0.48242701      -0.04661166       0.14882252      -0.24971570       0.14620724       0.28453040
H        2.64490515       0.24947605      -1.67642439       0.19826880      -0.11589799       0.02029617       0.14779055
H        1.02185059       1.11402025      -1.69956988      -0.05137964       0.09467515      -0.06358235       0.14651050
H        1.93251699      -1.01222489       0.32306883       0.09758849       0.04737216      -0.05493372       0.11779971
14
Properties=species:S:1:pos:R:3:forces:R:3:charge:R:1 energy=-9387.631338560133 pbc="F F F"
O       -1.42365709       1.89722448      -0.49025953       0.05337848       0.09622714      -0.00690445      -0.60478985
H       -2.37369488       1.78371906      -0.44996516      -0.04817734       0.02588326       0.00506011       0.34931222
H       -1.16929299       2.35267576       0.32955006      -0.06482540      -0.14500381      -0.00601493       0.28640893
C        0.12766210       0.99164902       2.42185553      -0.10690025       0.36563194       0.30073720       0.14342003
O       -0.49992321       1.97693973       2.10831546       0.11622743      -0.08054972       0.17947441      -0.33764780
H        1.22486843       0.96434092       2.39122835       0.00894077      -0.00649100      -0.09184764       0.08712699
H       -0.35158769       0.10423425       2.85294087      -0.06060714       0.01935232      -0.01841107       0.08514991
C        1.67738964       0.39735526      -1.23909123       0.04645596      -0.03841294       0.02616077      -0.37915307
C        1.30187900      -0.28775214      -0.16880396      -0.10558532       0.05934368      -0.18575910       0.00550320
O        0.09045262      -0.17353688       0.44206468       0.01407756      -0.31226090      -0.07639429      -0.33613735
H       -0.45147572       0.47885964      -0.04452299      -0.06329828       0.01921169      -0.07903619       0.28480110
H        2.64773756       0.24782036      -1.67613444       0.13814598      -0.08463672       0.02485172       0.14798522
H        1.02111660       1.11537275      -1.70047820      -0.04712227       0.09546410      -0.06579489       0.14758623
H        1.93391111      -1.01154814       0.32228406       0.11928981      -0.01375883      -0.00612164       0.12043426
14
Properties=species:S:1:pos:R:3:forces:R:3:charge:R:1 energy=-9387.640658932985 pbc="F F F"
O       -1.42365925       1.89869998      -0.49233820       0.03445067       0.11528881       0.04573673      -0.60493755
H       -2.37385760       1.78467692      -0.44975249      -0.03676317       0.02061191      -0.00952527       0.34904891
H       -1.17076868       2.34936002       0.33125290      -0.05935621      -0.14880216      -0.04316455       0.28627253
C        0.12712205       0.99929467       2.43350693       0.04937344       0.01703091       0.20884565       0.14405221
O       -0.49881010       1.97791351       2.11203893      -0.02950766       0.17786515       0.15720816      -0.33394098
H        1.22475196       0.96397643       2.38808609      -0.01323877       0.02470883      -0.03468713       0.08641921
H       -0.35330364       0.10488733       2.85184313      -0.04686931       0.06903537       0.02892462       0.08453168
C        1.67848618       0.39824075      -1.24046640       0.05730319      -0.00243510      -0.04494379      -0.37760139
C        1.30141743      -0.28911023      -0.17249060      -0.16358486       0.02263000      -0.06618605       0.00522430
O        0.08540557      -0.17871486       0.43783237       0.23317638      -0.41678607      -0.06555709      -0.33944145
H       -0.45083065       0.47622513      -0.04418987      -0.14501524       0.10988551      -0.15969475       0.28472525
H        2.65256605       0.24492859      -1.67544909       0.03364577      -0.04674548       0.05386625       0.14781111
H        1.01966333       1.11820466      -1.70241008       0.03517166       0.02145719      -0.02652911       0.14756663
H        1.93720282      -1.01122881       0.32151990       0.05121420       0.03625518      -0.04429365       0.12026957
14
Properties=species:S:1:pos:R:3:forces:R:3:charge:R:1 energy=-9387.651854683529 pbc="F F F"
O       -1.42365046       1.90344669      -0.49558710      -0.04597310       0.04583488       0.01943046      -0.60425848
H       -2.37438528       1.78691566      -0.44962736       0.00630355       0.01182889      -0.03816719       0.34887844
H       -1.17453705       2.34046142       0.33396138      -0.00533481      -0.07712884       0.02829378       0.28611121
C        0.12911810       1.01039658       2.45984351      -0.14457300       0.14142260      -0.26797915       0.14281373
O       -0.49915510       1.98631045       2.12147444       0.15705988      -0.06264570       0.34878084      -0.33114856
H        1.22397835       0.96395241       2.38175826      -0.00811091       0.07452818       0.08559469       0.08789200
H       -0.35733839       0.10788076       2.85051288      -0.03879354       0.10553814       0.15215853       0.08641671
C        1.68167523       0.40080474      -1.24519464      -0.03671116      -0.06539543       0.05086792      -0.38003895
C        1.29776847      -0.29253578      -0.17925807       0.03612628       0.01646265      -0.09921770       0.00631842
O        0.08030736      -0.19614491       0.42797757       0.13161179      -0.22441965      -0.18185757      -0.34235072
H       -0.45225025       0.47303653      -0.04642890      -0.05508819      -0.02556970      -0.07031465       0.28481871
H        2.66180630       0.23870365      -1.67289213      -0.10195392       0.02231891       0.07484302       0.14815120
H        1.01821114       1.12342098      -1.70628063       0.16369545      -0.07495122       0.00958017       0.14786455
H        1.94383705      -1.00929507       0.31872430      -0.05825834       0.11217627      -0.11201319       0.11853187
14
Properties=species:S:1:pos:R:3:forces:R:3:charge:R:1 energy=-9387.658118952893 pbc="F F F"
O       -1.42467032       1.90559038      -0.49685933       0.01239301       0.03585023       0.03341630      -0.60412455
H       -2.37422695       1.78794968      -0.45015309      -0.04949899       0.00233617      -0.04141701       0.34913370
H       -1.17589716       2.33624621       0.33576979       0.00126870      -0.05916839       0.03382786       0.28608552
C        0.12810368       1.01605144       2.46584574       0.04342523      -0.18548897      -0.20794046       0.14474359
O       -0.49729258       1.98899891       2.12995104      -0.02506695       0.21641937       0.24180894      -0.32870036
H        1.22350190       0.96504810       2.38068115      -0.02936998       0.07949072       0.10131124       0.08651003
H       -0.35938650       0.11059401       2.85224919      -0.02143741       0.12951323       0.15739433       0.08515266
C        1.68220665       0.40112662      -1.24654099       0.00067486      -0.07403862       0.03494833      -0.38094494
C        1.29755687      -0.29414442      -0.18290543       0.02518011       0.02920605      -0.09247801       0.00749829
O        0.07932056      -0.20506888       0.42120236       0.03296753      -0.12917525      -0.19098446      -0.34427911
H       -0.45308129       0.47081382      -0.04776065      -0.00115393      -0.09645747      -0.03824968       0.28492445
H        2.66376413       0.23670209      -1.67083062      -0.11087641       0.04109469       0.06443658       0.14773919
H        1.02017142       1.12417918      -1.70754382       0.15359506      -0.06173062      -0.00360837       0.14805792
H        1.94531509      -1.00673305       0.31587818      -0.03210082       0.07214890      -0.09246568       0.11820359
14
Properties=species:S:1:pos:R:3:forces:R:3:charge:R:1 energy=-9387.672717080759 pbc="F F F"
O       -1.42594724       1.91242948      -0.49953816      -0.04336585      -0.04056567       0.01400408      -0.60385126
H       -2.37598179       1.79078634      -0.45244159      -0.00426048       0.00376778      -0.05527596       0.34923762
H       -1.17977681       2.32315304       0.34151162       0.03271607       0.01770135       0.11267089       0.28588817
C        0.12734649       1.02646105       2.47971992       0.15495095      -0.38498837      -0.15732957       0.14807925
O       -0.49380134       2.00278678       2.15775692      -0.15795025       0.39313272       0.10755397      -0.32606190
H        1.22146585       0.96965720       2.37958692      -0.03081720       0.06080285       0.10239385       0.08500117
H       -0.36548659       0.12091826       2.86021579       0.00411179       0.11532728       0.15659781       0.08416346
C        1.68429820       0.39974127      -1.24896552       0.09137869       0.12878653      -0.25525668      -0.38071448
C        1.29708890      -0.29700605      -0.19623758      -0.04593394      -0.16924828       0.21325548       0.01158914
O        0.07538007      -0.23177531       0.39832878      -0.15442808       0.05402469      -0.15404852      -0.34990165
H       -0.45464477       0.46156680      -0.05186819       0.06860349      -0.20192023      -0.01501404       0.28527355
H        2.66752884       0.23194401      -1.66402195      -0.05495034       0.06794441       0.01531367       0.14670227
H        1.02811770       1.12580791      -1.71168351       0.13166089      -0.04275521      -0.02672599       0.14795923
H        1.94979799      -0.99911669       0.30662005       0.00828418      -0.00200994      -0.05813890       0.11663546
14
Properties=species:S:1:pos:R:3:forces:R:3:charge:R:1 energy=-9387.684376447703 pbc="F F F"
O       -1.42832637       1.91908598      -0.50189998       0.00389889      -0.05930891       0.08140938      -0.60416806
H       -2.37768891       1.79392871      -0.45594625      -0.02355067       0.00100219      -0.05832117       0.34952047
H       -1.18336875       2.30939553       0.34959836       0.02430046       0.04326008       0.09318474       0.28548148
C        0.12642434       1.03523080       2.49027270       0.16610253      -0.35624474      -0.05604757       0.15111822
O       -0.49033428       2.02060263       2.19069078      -0.18671967       0.38872179       0.00049493      -0.32494196
H        1.21914502       0.97555878       2.38020562      -0.03116652       0.02416746       0.06445780       0.08395981
H       -0.37205067       0.13361285       2.87172042       0.02215818       0.07618345       0.12232256       0.08375790
C        1.68832884       0.40078023      -1.25642444      -0.03653199      -0.07667965       0.08449937      -0.38520211
C        1.29487426      -0.30299842      -0.20628141       0.05777843       0.04157958      -0.09087002       0.01387771
O        0.06933519      -0.26025713       0.37185964      -0.29313225       0.11394791      -0.00700086      -0.35222504
H       -0.45572956       0.44876284      -0.05732729       0.06906022      -0.21435377      -0.06228037       0.28618270
H        2.67094008       0.22812506      -1.65668592       0.12260081       0.08011971      -0.09128521       0.14702593
H        1.03884141       1.12695467      -1.71674554       0.03018880       0.07342094      -0.12024332       0.14928314
H        1.95499489      -0.99142841       0.29594681       0.07501256      -0.13581590       0.03967980       0.11632985
14
Properties=species:S:1:pos:R:3:forces:R:3:charge:R:1 energy=-9387.691471668715 pbc="F F F"
O       -1.43042854       1.92372997      -0.50215772       0.06412714      -0.05278448       0.13553903      -0.60502338
H       -2.37910785       1.79656387      -0.45972772      -0.05267163       0.00102383      -0.04971422       0.34983176
H       -1.18604908       2.29870897       0.35732447       0.00125797       0.04760039       0.05676197       0.28510907
C        0.12628735       1.04024077       2.49744300      -0.03981533       0.03536021      -0.03235289       0.15158650
O       -0.48861152       2.03827731       2.21830786      -0.00001566       0.04476213       0.00832667      -0.32597345
H        1.21699545       0.98058380       2.38150063      -0.01843310      -0.01111924       0.01508288       0.08453760
H       -0.37714164       0.14478382       2.88293547       0.02540476       0.02782776       0.08285009       0.08490275
C        1.69012789       0.39939620      -1.25931964       0.07543612       0.07252485      -0.13865492      -0.38215151
C        1.29426809      -0.30612221      -0.21743972      -0.06004983      -0.14181170       0.18363845       0.01515592
O        0.06078611      -0.28279196       0.35110183      -0.13583133       0.08513521       0.03698255      -0.35609141
H       -0.45633905       0.43592939      -0.06359600      -0.00687038      -0.14378323      -0.12905601       0.28636786
H        2.67638469       0.22622042      -1.65249657       0.10403038       0.09904624      -0.08877528       0.14619920
H        1.04778181       1.12938225      -1.72303671       0.00879934       0.07239052      -0.12184908       0.14970905
H        1.96043176      -0.98754846       0.28814436       0.03463145      -0.13617247       0.04122057       0.11584014
14
Properties=species:S:1:pos:R:3:forces:R:3:charge:R:1 energy=-9387.695226480413 pbc="F F F"
O       -1.43016616       1.92527793      -0.49979428      -0.02916803      -0.08690406       0.09630892      -0.60534596
H       -2.38084354       1.79785137      -0.46240400       0.04722043       0.01911312      -0.04097523       0.34976390
H       -1.18741263       2.29415747       0.36181712      -0.00376029       0.06925657       0.09255612       0.28520396
C        0.12526348       1.04370949       2.50018257      -0.06919537       0.13330305       0.02866775       0.15200894
O       -0.48747509       2.04723569       2.23215538       0.03684871      -0.04466644      -0.01366505      -0.32608742
H        1.21563794       0.98287492       2.38240598      -0.02466347      -0.02361500      -0.01511388       0.08442111
H       -0.37921932       0.15072629       2.88984066       0.02313045       0.01682252       0.05275368       0.08507233
C        1.69219710       0.39960695      -1.26263230       0.00846273      -0.01729393       0.01456951      -0.38254178
C        1.29290330      -0.30970708      -0.22015911      -0.01659130      -0.03058476       0.02035470       0.01456048
O        0.05497888      -0.29281891       0.34166984       0.00799541      -0.00142314       0.08526394      -0.35665554
H       -0.45703800       0.42758127      -0.06907231      -0.07904307      -0.05140578      -0.18547140       0.28664660
H        2.68064888       0.22699182      -1.65188656       0.08853085       0.10131310      -0.07916936       0.14640588
H        1.05234963       1.13174611      -1.72814225       0.01628879       0.04596252      -0.10303317       0.15030633
H        1.96356102      -0.98787920       0.28500276      -0.00605568      -0.12987778       0.04695332       0.11624122
14
Properties=species:S:1:pos:R:3:forces:R:3:charge:R:1 energy=-9387.69984772935 pbc="F F F"
O       -1.43099524       1.92463113      -0.49531404       0.06067321      -0.05980308       0.13333184      -0.60604680
H       -2.38124794       1.79966651      -0.46621316       0.00285704       0.02153017      -0.01528346       0.35030213
H       -1.18879142       2.29121393       0.36900103      -0.04636351       0.03980929       0.02996330       0.28533006
C        0.12357088       1.04854560       2.50359540      -0.07284681       0.18796954       0.09413619       0.15239711
O       -0.48633965       2.05709238       2.24603943       0.05494514      -0.10539202      -0.03683184      -0.32595542
H        1.21351446       0.98484842       2.38322353      -0.03036525      -0.02783713      -0.04580108       0.08420625
H       -0.38079436       0.15756951       2.89846869       0.01301201       0.01478746       0.02127717       0.08513163
C        1.69435063       0.39924150      -1.26550971      -0.02260574      -0.05135266       0.08298082      -0.38210940
C        1.29143133      -0.31394468      -0.22285494       0.03856410       0.02566489      -0.08414584       0.01378102
O        0.04884404      -0.30305022       0.33360204       0.14018770      -0.01789083       0.06362805      -0.35733050
H       -0.45941889       0.41739461      -0.07897800      -0.11201788      -0.01689390      -0.19153500       0.28677708
H        2.68690940       0.23027057      -1.65303027       0.00704352       0.09689836      -0.02740375       0.14633529
H        1.05778225       1.13505482      -1.73576871       0.04876116      -0.03097080      -0.04035190       0.15073733
H        1.96657000      -0.99117994       0.28272220      -0.08184472      -0.07651909       0.01603547       0.11644433
14
Properties=species:S:1:pos:R:3:forces:R:3:charge:R:1 energy=-9387.704494396568 pbc="F F F"
O       -1.42965329       1.92192084      -0.48701780      -0.00364271      -0.08448866       0.06346914      -0.60638231
H       -2.38213509       1.80165989      -0.47040926       0.08435093       0.04153558       0.01231341       0.35061193
H       -1.19085489       2.29037996       0.37658267      -0.06383991       0.04096032       0.06053527       0.28587753
C        0.12137882       1.05450300       2.50766847      -0.02708290       0.14034857       0.14727725       0.15269081
O       -0.48538220       2.06565884       2.25671500       0.02528807      -0.07882503      -0.05798644      -0.32533896
H        1.21066568       0.98598497       2.38346892      -0.02928442      -0.02034115      -0.06751203       0.08372380
H       -0.38145419       0.16435630       2.90753163      -0.00495410       0.02201274      -0.00050625       0.08481399
C        1.69624449       0.39850116      -1.26750899      -0.00138323      -0.05902858       0.09025685      -0.38130343
C        1.29103887      -0.31846458      -0.22514785       0.04271632       0.07081275      -0.14504200       0.01283611
O        0.04460762      -0.31023038       0.32817883       0.23362917       0.00263637       0.00165408      -0.35825688
H       -0.46353032       0.40606055      -0.09272226      -0.10144330      -0.02476990      -0.15642881       0.28687835
H        2.69302226       0.23656021      -1.65549546      -0.08268918       0.07713112       0.04017847       0.14593302
H        1.06406534       1.13751199      -1.74426540       0.06240551      -0.10611999       0.03389362       0.15107273
H        1.96737238      -0.99704861       0.28140496      -0.13407017      -0.02186431      -0.02210251       0.11684337
14
Properties=species:S:1:pos:R:3:forces:R:3:charge:R:1 energy=-9387.710751556784 pbc="F F F"
O       -1.42831871       1.91635315      -0.47515825       0.05134642      -0.06468543       0.05428226      -0.60700548
H       -2.38138500       1.80522691      -0.47578874       0.06231166       0.04919510       0.04435014       0.35132647
H       -1.19478856       2.29017168       0.38851682      -0.09779787       0.00395065       0.01818651       0.28648615
C        0.11863002       1.06400171       2.51632718       0.03737710       0.04311243       0.15435803       0.15307358
O       -0.48433144       2.07694797       2.26980314      -0.01933639      -0.01827262      -0.06310192      -0.32422674
H        1.20628563       0.98719719       2.38250069      -0.02401526      -0.00011829      -0.07515220       0.08308418
H       -0.38250149       0.17404599       2.91981265      -0.03070970       0.03377134      -0.00684230       0.08437979
C        1.69962231       0.39715565      -1.26986683       0.00389379      -0.02135552       0.05339970      -0.38100475
C        1.29086129      -0.32399146      -0.22991110       0.07005327       0.07223969      -0.15370321       0.01258981
O        0.04220140      -0.31880522       0.32019701       0.23423049       0.07222054      -0.08128125      -0.35936496
H       -0.47023201       0.38921890      -0.11360715      -0.04867193      -0.07150282      -0.08060950       0.28724742
H        2.69966530       0.24640581      -1.65790194      -0.11736993       0.03205466       0.10025693       0.14546043
H        1.07352642       1.13884604      -1.75502847       0.05221649      -0.17132260       0.11058357       0.15119952
H        1.96615035      -1.00542018       0.27908847      -0.17352822       0.04071273      -0.07472686       0.11675464
14
Properties=species:S:1:pos:R:3:forces:R:3:charge:R:1 energy=-9387.717728095342 pbc="F F F"
O       -1.42517411       1.90882701      -0.45917027       0.01445308      -0.06980059      -0.00426750      -0.60755932
H       -2.37993577       1.81083250      -0.48188574       0.09975896       0.06061165       0.06868578       0.35183698
H       -1.20196589       2.28875007       0.40409236      -0.10299816      -0.01281272       0.02535786       0.28722614
C        0.11579557       1.07755794       2.53101311       0.08624350      -0.06645381       0.09744049       0.15345673
O       -0.48312015       2.09204707       2.28744351      -0.05594425       0.04485352      -0.04451939      -0.32296968
H        1.20026210       0.98914282       2.37980804      -0.01375276       0.02844764      -0.06355993       0.08241292
H       -0.38497478       0.18766394       2.93590249      -0.05415942       0.04633433       0.00528663       0.08389002
C        1.70434572       0.39576698      -1.27307812       0.05672911       0.01882016      -0.01656083      -0.38118741
C        1.29175019      -0.33060947      -0.23879203       0.04826522       0.05988789      -0.10977300       0.01306658
O        0.04194585      -0.32965568       0.30660225       0.16621029       0.12389096      -0.13303560      -0.36110258
H       -0.47914942       0.36528178      -0.14132628       0.01918358      -0.10166887      -0.00061407       0.28820074
H        2.70692466       0.25875953      -1.65867432      -0.09065583      -0.02473471       0.13790676       0.14470097
H        1.08660569       1.13773874      -1.76695004      -0.01954279      -0.17181472       0.14730281       0.15143929
H        1.96207582      -1.01474907       0.27399852      -0.15379040       0.06443918      -0.10964999       0.11658864
14
Properties=species:S:1:pos:R:3:forces:R:3:charge:R:1 energy=-9387.723841533294 pbc="F F F"
O       -1.42249483       1.90186647      -0.44559947       0.04775874      -0.05071649      -0.00225605      -0.60818082
H       -2.37695209       1.81733024      -0.48631540       0.04959653       0.05458566       0.06783453       0.35224602
H       -1.21071614       2.28535465       0.41918248      -0.09085113      -0.03351542       0.00385192       0.28754780
C        0.11408056       1.09094393       2.54754923       0.07769611      -0.10962408      -0.00529548       0.15394543
O       -0.48199975       2.10724187       2.30640166      -0.05295517       0.05618418      -0.01060908      -0.32234478
H        1.19454004       0.99200003       2.37602407      -0.00587017       0.04897532      -0.03618967       0.08205035
H       -0.38907994       0.20183095       2.95132898      -0.05820199       0.05065343       0.02884495       0.08362176
C        1.71021039       0.39489552      -1.27693550       0.06072548       0.05559921      -0.06325096      -0.38229325
C        1.29284618      -0.33590780      -0.25011134       0.03442740       0.02494653      -0.04220122       0.01436312
O        0.04368822      -0.34097457       0.28933078       0.05008828       0.12019511      -0.10636766      -0.36252904
H       -0.48686381       0.34117462      -0.16647352       0.05390774      -0.07598454       0.03389814       0.28962705
H        2.71307356       0.26830176      -1.65609962       0.02554808      -0.06749491       0.11860956       0.14436802
H        1.09819925       1.13444812      -1.77569086      -0.10382676      -0.11345564       0.12393021       0.15151513
H        1.95685386      -1.02115165       0.26639196      -0.08804324       0.03965155      -0.11079916       0.11606321
14
Properties=species:S:1:pos:R:3:forces:R:3:charge:R:1 energy=-9387.727263046007 pbc="F F F"
O       -1.42020636       1.89790404      -0.43865714       0.03733744      -0.04521136      -0.00526919      -0.60829449
H       -2.37453255       1.82214608      -0.48747797       0.01900280       0.04269002       0.04595000       0.35223818
H       -1.21759035       2.28157547       0.42763441      -0.05364258      -0.02802385       0.01968827       0.28751177
C        0.11385015       1.09837270       2.55762195       0.01754327      -0.07376704      -0.07343470       0.15430249
O       -0.48138754       2.11635708       2.31895657      -0.02205882       0.02342933       0.01346879      -0.32251179
H        1.19128046       0.99480824       2.37299971       0.00545103       0.04836629      -0.01715305       0.08212762
H       -0.39301036       0.21110290       2.96061556      -0.04191685       0.04321656       0.04212553       0.08355752
C        1.71448954       0.39519593      -1.28000653       0.06361970       0.04574838      -0.06042985      -0.38340259
C        1.29400427      -0.33813762      -0.25863627       0.00530504       0.00866242      -0.00177008       0.01538815
O        0.04585439      -0.34774028       0.27641444      -0.01889614       0.05872030      -0.02770400      -0.36333802
H       -0.49045482       0.32674520      -0.17983340       0.03665642      -0.00646541       0.01002397       0.29070210
H        2.71746951       0.27145903      -1.65179837       0.11636202      -0.06920289       0.07423957       0.14436746
H        1.10280476       1.13070861      -1.77827046      -0.15654990      -0.03037152       0.05916204       0.15161355
H        1.95281440      -1.02314322       0.25942094      -0.00821343      -0.01779111      -0.07889739       0.11573800
14
Properties=species:S:1:pos:R:3:forces:R:3:charge:R:1 energy=-9387.72975951101 pbc="F F F"
O       -1.41834194       1.89513454      -0.43526542       0.02266186      -0.02958889       0.02076965      -0.60798275
H       -2.37268354       1.82586207      -0.48712800      -0.00543144       0.02853566       0.01745120       0.35210505
H       -1.22275879       2.27824293       0.43286729      -0.01732080      -0.02739131       0.01806410       0.28730243
C        0.11379397       1.10206489       2.56262751      -0.03450435      -0.00895330      -0.09592611       0.15462717
O       -0.48107188       2.12182605       2.32731132       0.00666537      -0.01487684       0.02088251      -0.32296768
H        1.18957190       0.99750566       2.37071339       0.00765050       0.03523180      -0.00967686       0.08228625
H       -0.39638188       0.21744015       2.96668819      -0.02200028       0.02673010       0.04243149       0.08361671
C        1.71813193       0.39600601      -1.28261882       0.03478529       0.02752251      -0.03173044      -0.38427156
C        1.29479695      -0.33887913      -0.26455824      -0.00292660      -0.00090671       0.01086181       0.01594311
O        0.04722242      -0.35180216       0.26780909      -0.04345074       0.00714649       0.02861922      -0.36368775
H       -0.49198286       0.31874952      -0.18718957       0.00965787       0.05063102      -0.01671250       0.29133344
H        2.72224639       0.27139699      -1.64736714       0.14862998      -0.04764792       0.03537493       0.14466614
H        1.10238663       1.12788740      -1.77838294      -0.14790697       0.01395131       0.00847835       0.15158032
H        1.95045620      -1.02408077       0.25347679       0.04349025      -0.06038385      -0.04888741       0.11544915
14
Properties=species:S:1:pos:R:3:forces:R:3:charge:R:1 energy=-9387.731565107986 pbc="F F F"
O       -1.41624380       1.89177980      -0.43141959      -0.01633030      -0.01590328       0.03490940      -0.60739183
H       -2.37097630       1.82981845      -0.48652389      -0.00949498       0.01508992      -0.01100283       0.35193431
H       -1.22776001       2.27493208       0.43803474       0.02169488      -0.02326729       0.02660519       0.28709453
C        0.11322614       1.10490191       2.56523073      -0.06352665       0.04672530      -0.07658155       0.15507069
O       -0.48090704       2.12664154       2.33478312       0.01941022      -0.03452725       0.01114514      -0.32347834
H        1.18808745       1.00057207       2.36841891       0.00104017       0.01519696      -0.01161289       0.08236250
H       -0.39974858       0.22368795       2.97306039       0.00017410       0.00814838       0.02885718       0.08359758
C        1.72197318       0.39719236      -1.28539442       0.01074329      -0.00020241       0.00580326      -0.38488603